1
Lattice="20.0 0.0 0.0 0.0 20.0 0.0 0.0 0.0 20.0" Properties=species:S:1:pos:R:3:Z:I:1:forces_SCAN:R:3 energy_SCAN=0.05234837 stress_SCAN="-0.00044938865706359456 0.0 -0.0 0.0 -0.00044938865706359456 -0.0 -0.0 -0.0 -0.00044938865706359456" config_type=isolated_atoms pbc="T T T"
H        0.00000000       0.00000000       0.00000000        1      -0.00000100      -0.00000400      -0.00000100